# vtk DataFile Version 2.0
Cube example

ASCII 
DATASET RECTILINEAR_GRID
DIMENSIONS
3 3 1
X_COORDINATES 3 float
0. 2. 4.
Y_COORDINATES 3 float
0. 1. 2.
Z_COORDINATES 1 float
0.


CELL_DATA 4
POINT_DATA 9
SCALARS nodal float
LOOKUP_TABLE default
0 1 2 3 4 5 6 7 8
